<?xml version="1.0" encoding="UTF-8"?>

<!-- generated on 2024-08-11 23:51:40 by Eclipse SUMO GUI Version 1.20.0
<configuration xmlns:xsi="http://www.w3.org/2001/XMLSchema-instance" xsi:noNamespaceSchemaLocation="http://sumo.dlr.de/xsd/sumoConfiguration.xsd">

    <input>
        <net-file value="./configurations/simple_grid1.net.xml"/>
        <route-files value="./configurations/str_sumo.rou.xml"/>
    </input>

    <output>
        <netstate-dump value="./configurations/test_dump.xml"/>
        <fcd-output value="./configurations/testTrace.xml"/>
        <tripinfo-output value="./configurations/trips.trips.xml"/>
    </output>

    <time>
        <begin value="0"/>
        <end value="200000"/>
    </time>

    <traci_server>
        <remote-port value="52038"/>
    </traci_server>

    <gui_only>
        <quit-on-end value="true"/>
    </gui_only>

</configuration>
-->

<tripinfos xmlns:xsi="http://www.w3.org/2001/XMLSchema-instance" xsi:noNamespaceSchemaLocation="http://sumo.dlr.de/xsd/tripinfo_file.xsd">
    <tripinfo id="2" depart="1.00" departLane="gneE18_0" departPos="5.10" departSpeed="0.00" departDelay="0.00" arrival="7.00" arrivalLane="gneE18_0" arrivalPos="45.54" arrivalSpeed="12.89" duration="6.00" routeLength="40.44" waitingTime="0.00" waitingCount="0" stopTime="0.00" timeLoss="2.96" rerouteNo="0" devices="tripinfo_2 fcd_2" vType="DEFAULT_VEHTYPE" speedFactor="1.08" vaporized=""/>
    <tripinfo id="13" depart="7.00" departLane="-gneE12_0" departPos="5.10" departSpeed="0.00" departDelay="0.50" arrival="12.00" arrivalLane="-gneE12_0" arrivalPos="27.94" arrivalSpeed="9.45" duration="5.00" routeLength="22.84" waitingTime="0.00" waitingCount="0" stopTime="0.00" timeLoss="2.88" rerouteNo="0" devices="tripinfo_13 fcd_13" vType="DEFAULT_VEHTYPE" speedFactor="0.93" vaporized=""/>
    <tripinfo id="14" depart="7.00" departLane="gneE23_0" departPos="5.10" departSpeed="0.00" departDelay="0.00" arrival="16.00" arrivalLane="gneE14_0" arrivalPos="20.71" arrivalSpeed="12.06" duration="9.00" routeLength="74.77" waitingTime="0.00" waitingCount="0" stopTime="0.00" timeLoss="2.32" rerouteNo="0" devices="tripinfo_14 fcd_14" vType="DEFAULT_VEHTYPE" speedFactor="0.88" vaporized=""/>
    <tripinfo id="34" depart="17.00" departLane="-gneE22_0" departPos="5.10" departSpeed="0.00" departDelay="0.00" arrival="23.00" arrivalLane="-gneE22_0" arrivalPos="41.14" arrivalSpeed="12.93" duration="6.00" routeLength="36.04" waitingTime="0.00" waitingCount="0" stopTime="0.00" timeLoss="2.98" rerouteNo="0" devices="tripinfo_34 fcd_34" vType="DEFAULT_VEHTYPE" speedFactor="1.10" vaporized=""/>
    <tripinfo id="10" depart="8.00" departLane="gneE22_0" departPos="5.10" departSpeed="0.00" departDelay="3.00" arrival="28.00" arrivalLane="gneE18_0" arrivalPos="45.54" arrivalSpeed="13.97" duration="20.00" routeLength="224.13" waitingTime="0.00" waitingCount="0" stopTime="0.00" timeLoss="3.71" rerouteNo="0" devices="tripinfo_10 fcd_10" vType="DEFAULT_VEHTYPE" speedFactor="1.03" vaporized=""/>
    <tripinfo id="1" depart="1.00" departLane="-gneE20_0" departPos="5.10" departSpeed="0.00" departDelay="0.50" arrival="29.00" arrivalLane="-gneE18_0" arrivalPos="45.54" arrivalSpeed="12.71" duration="28.00" routeLength="295.55" waitingTime="0.00" waitingCount="0" stopTime="0.00" timeLoss="6.85" rerouteNo="0" devices="tripinfo_1 fcd_1" vType="DEFAULT_VEHTYPE" speedFactor="1.01" vaporized=""/>
    <tripinfo id="104" depart="20.00" departLane="-gneE26_0" departPos="5.10" departSpeed="0.00" departDelay="0.00" arrival="30.00" arrivalLane="-gneE26_0" arrivalPos="97.15" arrivalSpeed="14.11" duration="10.00" routeLength="92.05" waitingTime="0.00" waitingCount="0" stopTime="0.00" timeLoss="3.20" rerouteNo="0" devices="tripinfo_104 fcd_104" vType="DEFAULT_VEHTYPE" speedFactor="1.09" vaporized=""/>
    <tripinfo id="39" depart="20.00" departLane="-gneE19_0" departPos="5.10" departSpeed="0.00" departDelay="0.50" arrival="32.00" arrivalLane="-gneE19_0" arrivalPos="130.57" arrivalSpeed="13.41" duration="12.00" routeLength="125.47" waitingTime="0.00" waitingCount="0" stopTime="0.00" timeLoss="3.24" rerouteNo="0" devices="tripinfo_39 fcd_39" vType="DEFAULT_VEHTYPE" speedFactor="1.04" vaporized=""/>
    <tripinfo id="21" depart="11.00" departLane="-gneE18_0" departPos="5.10" departSpeed="0.00" departDelay="0.50" arrival="35.00" arrivalLane="-gneE22_0" arrivalPos="41.14" arrivalSpeed="10.68" duration="24.00" routeLength="223.93" waitingTime="0.00" waitingCount="0" stopTime="0.00" timeLoss="4.07" rerouteNo="0" devices="tripinfo_21 fcd_21" vType="DEFAULT_VEHTYPE" speedFactor="0.83" vaporized=""/>
    <tripinfo id="30" depart="15.00" departLane="gneE9_0" departPos="5.10" departSpeed="0.00" departDelay="0.00" arrival="49.00" arrivalLane="gneE15_0" arrivalPos="83.62" arrivalSpeed="15.67" duration="34.00" routeLength="393.77" waitingTime="0.00" waitingCount="0" stopTime="0.00" timeLoss="9.30" rerouteNo="0" devices="tripinfo_30 fcd_30" vType="DEFAULT_VEHTYPE" speedFactor="1.17" vaporized=""/>
    <tripinfo id="79" depart="40.00" departLane="-gneE18_0" departPos="5.10" departSpeed="0.00" departDelay="0.50" arrival="51.00" arrivalLane="-gneE18_0" arrivalPos="45.54" arrivalSpeed="5.02" duration="11.00" routeLength="40.44" waitingTime="0.00" waitingCount="0" stopTime="0.00" timeLoss="8.11" rerouteNo="0" devices="tripinfo_79 fcd_79" vType="DEFAULT_VEHTYPE" speedFactor="1.04" vaporized=""/>
    <tripinfo id="9" depart="5.00" departLane="gneE22_0" departPos="5.10" departSpeed="0.00" departDelay="0.50" arrival="54.00" arrivalLane="-gneE10_0" arrivalPos="40.02" arrivalSpeed="14.26" duration="49.00" routeLength="262.95" waitingTime="21.00" waitingCount="1" stopTime="0.00" timeLoss="30.07" rerouteNo="0" devices="tripinfo_9 fcd_9" vType="DEFAULT_VEHTYPE" speedFactor="1.09" vaporized=""/>
    <tripinfo id="44" depart="22.00" departLane="-gneE12_0" departPos="5.10" departSpeed="0.00" departDelay="0.00" arrival="58.00" arrivalLane="-gneE11_0" arrivalPos="159.77" arrivalSpeed="7.77" duration="36.00" routeLength="190.72" waitingTime="8.00" waitingCount="1" stopTime="0.00" timeLoss="18.87" rerouteNo="0" devices="tripinfo_44 fcd_44" vType="DEFAULT_VEHTYPE" speedFactor="0.85" vaporized=""/>
    <tripinfo id="4" depart="3.00" departLane="-gneE26_0" departPos="5.10" departSpeed="0.00" departDelay="1.00" arrival="60.00" arrivalLane="-gneE10_0" arrivalPos="40.02" arrivalSpeed="10.81" duration="57.00" routeLength="370.27" waitingTime="10.00" waitingCount="1" stopTime="0.00" timeLoss="22.76" rerouteNo="0" devices="tripinfo_4 fcd_4" vType="DEFAULT_VEHTYPE" speedFactor="0.83" vaporized=""/>
    <tripinfo id="81" depart="43.00" departLane="-gneE18_0" departPos="5.10" departSpeed="0.00" departDelay="2.50" arrival="62.00" arrivalLane="gneE27_0" arrivalPos="77.59" arrivalSpeed="12.91" duration="19.00" routeLength="129.04" waitingTime="0.00" waitingCount="0" stopTime="0.00" timeLoss="8.22" rerouteNo="0" devices="tripinfo_81 fcd_81" vType="DEFAULT_VEHTYPE" speedFactor="1.02" vaporized=""/>
    <tripinfo id="31" depart="16.00" departLane="gneE10_0" departPos="5.10" departSpeed="0.00" departDelay="0.50" arrival="68.00" arrivalLane="gneE18_0" arrivalPos="45.54" arrivalSpeed="13.65" duration="52.00" routeLength="363.33" waitingTime="7.00" waitingCount="1" stopTime="0.00" timeLoss="24.58" rerouteNo="0" devices="tripinfo_31 fcd_31" vType="DEFAULT_VEHTYPE" speedFactor="1.02" vaporized=""/>
    <tripinfo id="41" depart="22.00" departLane="gneE11_0" departPos="5.10" departSpeed="0.00" departDelay="1.50" arrival="69.00" arrivalLane="gneE26_0" arrivalPos="97.15" arrivalSpeed="12.72" duration="47.00" routeLength="315.47" waitingTime="11.00" waitingCount="1" stopTime="0.00" timeLoss="23.18" rerouteNo="0" devices="tripinfo_41 fcd_41" vType="DEFAULT_VEHTYPE" speedFactor="1.00" vaporized=""/>
    <tripinfo id="55" depart="30.00" departLane="gneE25_0" departPos="5.10" departSpeed="0.00" departDelay="2.50" arrival="70.00" arrivalLane="-gneE19_0" arrivalPos="130.57" arrivalSpeed="7.05" duration="40.00" routeLength="206.12" waitingTime="11.00" waitingCount="1" stopTime="0.00" timeLoss="26.28" rerouteNo="0" devices="tripinfo_55 fcd_55" vType="DEFAULT_VEHTYPE" speedFactor="1.12" vaporized=""/>
    <tripinfo id="101" depart="6.00" departLane="-gneE26_0" departPos="5.10" departSpeed="0.00" departDelay="1.00" arrival="71.00" arrivalLane="gneE26_0" arrivalPos="97.15" arrivalSpeed="14.22" duration="65.00" routeLength="647.34" waitingTime="0.00" waitingCount="0" stopTime="0.00" timeLoss="18.10" rerouteNo="5" devices="tripinfo_101 fcd_101" vType="DEFAULT_VEHTYPE" speedFactor="1.05" vaporized=""/>
    <tripinfo id="40" depart="20.00" departLane="gneE10_0" departPos="5.10" departSpeed="0.00" departDelay="0.00" arrival="72.00" arrivalLane="-gneE19_0" arrivalPos="130.57" arrivalSpeed="9.93" duration="52.00" routeLength="355.35" waitingTime="10.00" waitingCount="1" stopTime="0.00" timeLoss="26.39" rerouteNo="0" devices="tripinfo_40 fcd_40" vType="DEFAULT_VEHTYPE" speedFactor="1.04" vaporized=""/>
    <tripinfo id="90" depart="48.00" departLane="gneE15_0" departPos="5.10" departSpeed="0.00" departDelay="3.00" arrival="80.00" arrivalLane="gneE18_0" arrivalPos="45.54" arrivalSpeed="15.23" duration="32.00" routeLength="219.26" waitingTime="0.00" waitingCount="0" stopTime="0.00" timeLoss="17.06" rerouteNo="0" devices="tripinfo_90 fcd_90" vType="DEFAULT_VEHTYPE" speedFactor="1.10" vaporized=""/>
    <tripinfo id="17" depart="9.00" departLane="-gneE25_0" departPos="5.10" departSpeed="0.00" departDelay="0.50" arrival="99.00" arrivalLane="gneE12_0" arrivalPos="27.94" arrivalSpeed="7.58" duration="90.00" routeLength="375.87" waitingTime="42.00" waitingCount="2" stopTime="0.00" timeLoss="65.23" rerouteNo="0" devices="tripinfo_17 fcd_17" vType="DEFAULT_VEHTYPE" speedFactor="1.16" vaporized=""/>
    <tripinfo id="23" depart="13.00" departLane="-gneE13_0" departPos="5.10" departSpeed="0.00" departDelay="1.50" arrival="99.00" arrivalLane="-gneE22_0" arrivalPos="41.14" arrivalSpeed="12.68" duration="86.00" routeLength="248.09" waitingTime="53.00" waitingCount="2" stopTime="0.00" timeLoss="65.84" rerouteNo="0" devices="tripinfo_23 fcd_23" vType="DEFAULT_VEHTYPE" speedFactor="0.92" vaporized=""/>
    <tripinfo id="27" depart="17.00" departLane="gneE13_0" departPos="5.10" departSpeed="0.00" departDelay="3.50" arrival="99.00" arrivalLane="gneE14_0" arrivalPos="20.71" arrivalSpeed="7.37" duration="82.00" routeLength="187.00" waitingTime="51.00" waitingCount="2" stopTime="0.00" timeLoss="69.99" rerouteNo="0" devices="tripinfo_27 fcd_27" vType="DEFAULT_VEHTYPE" speedFactor="1.18" vaporized=""/>
    <tripinfo id="12" depart="6.00" departLane="gneE28_0" departPos="5.10" departSpeed="0.00" departDelay="0.00" arrival="100.00" arrivalLane="-gneE25_0" arrivalPos="70.98" arrivalSpeed="5.48" duration="94.00" routeLength="350.08" waitingTime="55.00" waitingCount="1" stopTime="0.00" timeLoss="67.36" rerouteNo="0" devices="tripinfo_12 fcd_12" vType="DEFAULT_VEHTYPE" speedFactor="0.99" vaporized=""/>
    <tripinfo id="0" depart="0.00" departLane="gneE13_0" departPos="5.10" departSpeed="0.00" departDelay="0.00" arrival="101.00" arrivalLane="-gneE10_0" arrivalPos="40.02" arrivalSpeed="14.32" duration="101.00" routeLength="271.07" waitingTime="67.00" waitingCount="2" stopTime="0.00" timeLoss="81.77" rerouteNo="0" devices="tripinfo_0 fcd_0" vType="DEFAULT_VEHTYPE" speedFactor="1.06" vaporized=""/>
    <tripinfo id="15" depart="18.00" departLane="gneE22_0" departPos="5.10" departSpeed="0.00" departDelay="10.50" arrival="104.00" arrivalLane="gneE19_0" arrivalPos="130.57" arrivalSpeed="7.31" duration="86.00" routeLength="361.49" waitingTime="36.00" waitingCount="1" stopTime="0.00" timeLoss="57.18" rerouteNo="0" devices="tripinfo_15 fcd_15" vType="DEFAULT_VEHTYPE" speedFactor="0.94" vaporized=""/>
    <tripinfo id="80" depart="40.00" departLane="-gneE12_0" departPos="5.10" departSpeed="0.00" departDelay="0.00" arrival="110.00" arrivalLane="gneE14_0" arrivalPos="20.71" arrivalSpeed="9.77" duration="70.00" routeLength="279.63" waitingTime="30.00" waitingCount="2" stopTime="0.00" timeLoss="48.78" rerouteNo="0" devices="tripinfo_80 fcd_80" vType="DEFAULT_VEHTYPE" speedFactor="1.01" vaporized=""/>
    <tripinfo id="16" depart="8.00" departLane="gneE10_0" departPos="5.10" departSpeed="0.00" departDelay="0.00" arrival="119.00" arrivalLane="gneE9_0" arrivalPos="168.72" arrivalSpeed="4.75" duration="111.00" routeLength="430.79" waitingTime="54.00" waitingCount="2" stopTime="0.00" timeLoss="76.26" rerouteNo="0" devices="tripinfo_16 fcd_16" vType="DEFAULT_VEHTYPE" speedFactor="0.94" vaporized=""/>
    <tripinfo id="96" depart="48.00" departLane="-gneE19_0" departPos="5.10" departSpeed="0.00" departDelay="0.00" arrival="120.00" arrivalLane="gneE27_0" arrivalPos="77.59" arrivalSpeed="13.98" duration="72.00" routeLength="261.87" waitingTime="39.00" waitingCount="1" stopTime="0.00" timeLoss="52.14" rerouteNo="0" devices="tripinfo_96 fcd_96" vType="DEFAULT_VEHTYPE" speedFactor="1.01" vaporized=""/>
    <tripinfo id="67" depart="34.00" departLane="-gneE12_0" departPos="5.10" departSpeed="0.00" departDelay="0.50" arrival="122.00" arrivalLane="gneE10_0" arrivalPos="40.02" arrivalSpeed="12.12" duration="88.00" routeLength="296.98" waitingTime="44.00" waitingCount="2" stopTime="0.00" timeLoss="63.37" rerouteNo="0" devices="tripinfo_67 fcd_67" vType="DEFAULT_VEHTYPE" speedFactor="0.96" vaporized=""/>
    <tripinfo id="107" depart="35.00" departLane="-gneE26_0" departPos="5.10" departSpeed="0.00" departDelay="0.00" arrival="124.00" arrivalLane="gneE9_0" arrivalPos="168.72" arrivalSpeed="5.68" duration="89.00" routeLength="275.18" waitingTime="48.00" waitingCount="2" stopTime="0.00" timeLoss="69.34" rerouteNo="1" devices="tripinfo_107 fcd_107" vType="DEFAULT_VEHTYPE" speedFactor="1.01" vaporized=""/>
    <tripinfo id="3" depart="2.00" departLane="gneE25_0" departPos="5.10" departSpeed="0.00" departDelay="0.50" arrival="129.00" arrivalLane="-gneE12_0" arrivalPos="27.94" arrivalSpeed="13.99" duration="127.00" routeLength="383.52" waitingTime="75.00" waitingCount="2" stopTime="0.00" timeLoss="98.94" rerouteNo="0" devices="tripinfo_3 fcd_3" vType="DEFAULT_VEHTYPE" speedFactor="1.03" vaporized=""/>
    <tripinfo id="75" depart="38.00" departLane="gneE9_0" departPos="5.10" departSpeed="0.00" departDelay="0.50" arrival="132.00" arrivalLane="gneE15_0" arrivalPos="83.62" arrivalSpeed="13.26" duration="94.00" routeLength="393.77" waitingTime="48.00" waitingCount="1" stopTime="0.00" timeLoss="64.17" rerouteNo="0" devices="tripinfo_75 fcd_75" vType="DEFAULT_VEHTYPE" speedFactor="0.97" vaporized=""/>
    <tripinfo id="52" depart="26.00" departLane="-gneE20_0" departPos="5.10" departSpeed="0.00" departDelay="0.00" arrival="135.00" arrivalLane="gneE15_0" arrivalPos="83.62" arrivalSpeed="13.45" duration="109.00" routeLength="281.86" waitingTime="68.00" waitingCount="2" stopTime="0.00" timeLoss="87.55" rerouteNo="0" devices="tripinfo_52 fcd_52" vType="DEFAULT_VEHTYPE" speedFactor="1.02" vaporized=""/>
    <tripinfo id="89" depart="45.00" departLane="-gneE26_0" departPos="5.10" departSpeed="0.00" departDelay="0.50" arrival="136.00" arrivalLane="gneE10_0" arrivalPos="40.02" arrivalSpeed="12.15" duration="91.00" routeLength="317.66" waitingTime="38.00" waitingCount="2" stopTime="0.00" timeLoss="69.50" rerouteNo="0" devices="tripinfo_89 fcd_89" vType="DEFAULT_VEHTYPE" speedFactor="1.12" vaporized=""/>
    <tripinfo id="58" depart="29.00" departLane="-gneE20_0" departPos="5.10" departSpeed="0.00" departDelay="0.00" arrival="138.00" arrivalLane="gneE15_0" arrivalPos="83.62" arrivalSpeed="11.85" duration="109.00" routeLength="281.86" waitingTime="67.00" waitingCount="2" stopTime="0.00" timeLoss="85.57" rerouteNo="0" devices="tripinfo_58 fcd_58" vType="DEFAULT_VEHTYPE" speedFactor="0.94" vaporized=""/>
    <tripinfo id="8" depart="6.00" departLane="-gneE18_0" departPos="5.10" departSpeed="0.00" departDelay="2.00" arrival="144.00" arrivalLane="gneE13_0" arrivalPos="162.05" arrivalSpeed="5.00" duration="138.00" routeLength="298.46" waitingTime="92.00" waitingCount="2" stopTime="0.00" timeLoss="111.89" rerouteNo="0" devices="tripinfo_8 fcd_8" vType="DEFAULT_VEHTYPE" speedFactor="0.86" vaporized=""/>
    <tripinfo id="47" depart="25.00" departLane="-gneE11_0" departPos="5.10" departSpeed="0.00" departDelay="1.50" arrival="144.00" arrivalLane="-gneE27_0" arrivalPos="77.59" arrivalSpeed="5.62" duration="119.00" routeLength="416.69" waitingTime="62.00" waitingCount="3" stopTime="0.00" timeLoss="87.88" rerouteNo="0" devices="tripinfo_47 fcd_47" vType="DEFAULT_VEHTYPE" speedFactor="1.02" vaporized=""/>
    <tripinfo id="20" depart="10.00" departLane="gneE15_0" departPos="5.10" departSpeed="0.00" departDelay="0.00" arrival="150.00" arrivalLane="-gneE11_0" arrivalPos="159.77" arrivalSpeed="9.08" duration="140.00" routeLength="449.99" waitingTime="77.00" waitingCount="3" stopTime="0.00" timeLoss="104.79" rerouteNo="0" devices="tripinfo_20 fcd_20" vType="DEFAULT_VEHTYPE" speedFactor="0.97" vaporized=""/>
    <tripinfo id="49" depart="30.00" departLane="gneE9_0" departPos="5.10" departSpeed="0.00" departDelay="5.50" arrival="152.00" arrivalLane="gneE25_0" arrivalPos="70.98" arrivalSpeed="7.18" duration="122.00" routeLength="386.29" waitingTime="67.00" waitingCount="2" stopTime="0.00" timeLoss="94.05" rerouteNo="0" devices="tripinfo_49 fcd_49" vType="DEFAULT_VEHTYPE" speedFactor="1.00" vaporized=""/>
    <tripinfo id="71" depart="38.00" departLane="-gneE19_0" departPos="5.10" departSpeed="0.00" departDelay="2.50" arrival="152.00" arrivalLane="gneE26_0" arrivalPos="97.15" arrivalSpeed="14.17" duration="114.00" routeLength="468.34" waitingTime="55.00" waitingCount="2" stopTime="0.00" timeLoss="82.02" rerouteNo="0" devices="tripinfo_71 fcd_71" vType="DEFAULT_VEHTYPE" speedFactor="1.09" vaporized=""/>
    <tripinfo id="18" depart="21.00" departLane="gneE22_0" departPos="5.10" departSpeed="0.00" departDelay="12.00" arrival="153.00" arrivalLane="gneE14_0" arrivalPos="20.71" arrivalSpeed="9.17" duration="132.00" routeLength="282.54" waitingTime="86.00" waitingCount="2" stopTime="0.00" timeLoss="110.41" rerouteNo="0" devices="tripinfo_18 fcd_18" vType="DEFAULT_VEHTYPE" speedFactor="1.02" vaporized=""/>
    <tripinfo id="82" depart="41.00" departLane="gneE23_0" departPos="5.10" departSpeed="0.00" departDelay="0.00" arrival="154.00" arrivalLane="-gneE12_0" arrivalPos="27.94" arrivalSpeed="11.44" duration="113.00" routeLength="248.06" waitingTime="76.00" waitingCount="1" stopTime="0.00" timeLoss="90.72" rerouteNo="0" devices="tripinfo_82 fcd_82" vType="DEFAULT_VEHTYPE" speedFactor="0.89" vaporized=""/>
    <tripinfo id="99" depart="60.00" departLane="gneE9_0" departPos="5.10" departSpeed="0.00" departDelay="10.50" arrival="154.00" arrivalLane="gneE25_0" arrivalPos="70.98" arrivalSpeed="8.02" duration="94.00" routeLength="386.29" waitingTime="40.00" waitingCount="2" stopTime="0.00" timeLoss="64.93" rerouteNo="0" devices="tripinfo_99 fcd_99" vType="DEFAULT_VEHTYPE" speedFactor="0.96" vaporized=""/>
    <tripinfo id="102" depart="10.00" departLane="gneE13_0" departPos="5.10" departSpeed="0.00" departDelay="0.00" arrival="155.00" arrivalLane="-gneE19_0" arrivalPos="130.57" arrivalSpeed="11.08" duration="145.00" routeLength="412.98" waitingTime="92.00" waitingCount="3" stopTime="0.00" timeLoss="110.24" rerouteNo="3" devices="tripinfo_102 fcd_102" vType="DEFAULT_VEHTYPE" speedFactor="0.89" vaporized=""/>
    <tripinfo id="106" depart="32.00" departLane="-gneE20_0" departPos="5.10" departSpeed="0.00" departDelay="2.00" arrival="155.00" arrivalLane="gneE26_0" arrivalPos="97.15" arrivalSpeed="12.41" duration="123.00" routeLength="590.62" waitingTime="50.00" waitingCount="3" stopTime="0.00" timeLoss="74.92" rerouteNo="6" devices="tripinfo_106 fcd_106" vType="DEFAULT_VEHTYPE" speedFactor="0.91" vaporized=""/>
    <tripinfo id="19" depart="10.00" departLane="gneE23_0" departPos="5.10" departSpeed="0.00" departDelay="0.50" arrival="156.00" arrivalLane="gneE13_0" arrivalPos="162.05" arrivalSpeed="9.26" duration="146.00" routeLength="500.00" waitingTime="77.00" waitingCount="3" stopTime="0.00" timeLoss="108.10" rerouteNo="0" devices="tripinfo_19 fcd_19" vType="DEFAULT_VEHTYPE" speedFactor="1.01" vaporized=""/>
    <tripinfo id="88" depart="44.00" departLane="-gneE12_0" departPos="5.10" departSpeed="0.00" departDelay="0.00" arrival="156.00" arrivalLane="-gneE28_0" arrivalPos="71.89" arrivalSpeed="11.84" duration="112.00" routeLength="533.76" waitingTime="36.00" waitingCount="3" stopTime="0.00" timeLoss="65.92" rerouteNo="0" devices="tripinfo_88 fcd_88" vType="DEFAULT_VEHTYPE" speedFactor="0.91" vaporized=""/>
    <tripinfo id="93" depart="47.00" departLane="gneE23_0" departPos="5.10" departSpeed="0.00" departDelay="0.50" arrival="157.00" arrivalLane="-gneE19_0" arrivalPos="130.57" arrivalSpeed="13.06" duration="110.00" routeLength="300.75" waitingTime="73.00" waitingCount="2" stopTime="0.00" timeLoss="86.36" rerouteNo="0" devices="tripinfo_93 fcd_93" vType="DEFAULT_VEHTYPE" speedFactor="0.95" vaporized=""/>
    <tripinfo id="46" depart="23.00" departLane="gneE19_0" departPos="5.10" departSpeed="0.00" departDelay="0.00" arrival="160.00" arrivalLane="-gneE28_0" arrivalPos="71.89" arrivalSpeed="15.63" duration="137.00" routeLength="469.90" waitingTime="73.00" waitingCount="5" stopTime="0.00" timeLoss="106.19" rerouteNo="0" devices="tripinfo_46 fcd_46" vType="DEFAULT_VEHTYPE" speedFactor="1.17" vaporized=""/>
    <tripinfo id="68" depart="37.00" departLane="-gneE12_0" departPos="5.10" departSpeed="0.00" departDelay="3.00" arrival="160.00" arrivalLane="gneE20_0" arrivalPos="108.29" arrivalSpeed="13.35" duration="123.00" routeLength="487.86" waitingTime="61.00" waitingCount="3" stopTime="0.00" timeLoss="85.25" rerouteNo="0" devices="tripinfo_68 fcd_68" vType="DEFAULT_VEHTYPE" speedFactor="0.98" vaporized=""/>
    <tripinfo id="100" depart="0.00" departLane="-gneE26_0" departPos="5.10" departSpeed="0.00" departDelay="0.00" arrival="161.00" arrivalLane="gneE15_0" arrivalPos="83.62" arrivalSpeed="12.59" duration="161.00" routeLength="483.08" waitingTime="94.00" waitingCount="3" stopTime="0.00" timeLoss="120.40" rerouteNo="5" devices="tripinfo_100 fcd_100" vType="DEFAULT_VEHTYPE" speedFactor="0.94" vaporized=""/>
    <tripinfo id="37" depart="21.00" departLane="gneE13_0" departPos="5.10" departSpeed="0.00" departDelay="2.50" arrival="163.00" arrivalLane="-gneE27_0" arrivalPos="77.59" arrivalSpeed="12.33" duration="142.00" routeLength="360.11" waitingTime="94.00" waitingCount="2" stopTime="0.00" timeLoss="112.68" rerouteNo="0" devices="tripinfo_37 fcd_37" vType="DEFAULT_VEHTYPE" speedFactor="0.96" vaporized=""/>
    <tripinfo id="91" depart="46.00" departLane="gneE9_0" departPos="5.10" departSpeed="0.00" departDelay="0.50" arrival="163.00" arrivalLane="-gneE12_0" arrivalPos="27.94" arrivalSpeed="11.57" duration="117.00" routeLength="473.84" waitingTime="55.00" waitingCount="2" stopTime="0.00" timeLoss="79.68" rerouteNo="0" devices="tripinfo_91 fcd_91" vType="DEFAULT_VEHTYPE" speedFactor="0.96" vaporized=""/>
    <tripinfo id="22" depart="11.00" departLane="-gneE12_0" departPos="5.10" departSpeed="0.00" departDelay="0.00" arrival="168.00" arrivalLane="-gneE18_0" arrivalPos="45.54" arrivalSpeed="11.69" duration="157.00" routeLength="553.41" waitingTime="82.00" waitingCount="3" stopTime="0.00" timeLoss="108.41" rerouteNo="0" devices="tripinfo_22 fcd_22" vType="DEFAULT_VEHTYPE" speedFactor="0.87" vaporized=""/>
    <tripinfo id="98" depart="51.00" departLane="gneE10_0" departPos="5.10" departSpeed="0.00" departDelay="2.00" arrival="174.00" arrivalLane="-gneE11_0" arrivalPos="159.77" arrivalSpeed="14.57" duration="123.00" routeLength="470.54" waitingTime="67.00" waitingCount="2" stopTime="0.00" timeLoss="88.99" rerouteNo="0" devices="tripinfo_98 fcd_98" vType="DEFAULT_VEHTYPE" speedFactor="1.06" vaporized=""/>
    <tripinfo id="65" depart="33.00" departLane="-gneE22_0" departPos="5.10" departSpeed="0.00" departDelay="0.50" arrival="182.00" arrivalLane="-gneE11_0" arrivalPos="159.77" arrivalSpeed="12.12" duration="149.00" routeLength="691.91" waitingTime="57.00" waitingCount="3" stopTime="0.00" timeLoss="92.55" rerouteNo="0" devices="tripinfo_65 fcd_65" vType="DEFAULT_VEHTYPE" speedFactor="0.94" vaporized=""/>
    <tripinfo id="73" depart="37.00" departLane="gneE10_0" departPos="5.10" departSpeed="0.00" departDelay="0.50" arrival="189.00" arrivalLane="gneE19_0" arrivalPos="130.57" arrivalSpeed="5.48" duration="152.00" routeLength="500.69" waitingTime="79.00" waitingCount="3" stopTime="0.00" timeLoss="113.80" rerouteNo="0" devices="tripinfo_73 fcd_73" vType="DEFAULT_VEHTYPE" speedFactor="1.00" vaporized=""/>
    <tripinfo id="53" depart="31.00" departLane="-gneE13_0" departPos="5.10" departSpeed="0.00" departDelay="4.50" arrival="192.00" arrivalLane="-gneE9_0" arrivalPos="168.72" arrivalSpeed="8.47" duration="161.00" routeLength="592.62" waitingTime="89.00" waitingCount="3" stopTime="0.00" timeLoss="113.59" rerouteNo="0" devices="tripinfo_53 fcd_53" vType="DEFAULT_VEHTYPE" speedFactor="0.97" vaporized=""/>
    <tripinfo id="32" depart="16.00" departLane="gneE23_0" departPos="5.10" departSpeed="0.00" departDelay="0.00" arrival="193.00" arrivalLane="gneE22_0" arrivalPos="41.14" arrivalSpeed="12.53" duration="177.00" routeLength="702.51" waitingTime="91.00" waitingCount="4" stopTime="0.00" timeLoss="120.11" rerouteNo="0" devices="tripinfo_32 fcd_32" vType="DEFAULT_VEHTYPE" speedFactor="0.97" vaporized=""/>
    <tripinfo id="103" depart="19.00" departLane="-gneE15_0" departPos="5.10" departSpeed="0.00" departDelay="4.00" arrival="194.00" arrivalLane="gneE28_0" arrivalPos="71.89" arrivalSpeed="6.70" duration="175.00" routeLength="376.97" waitingTime="106.00" waitingCount="5" stopTime="0.00" timeLoss="145.57" rerouteNo="3" devices="tripinfo_103 fcd_103" vType="DEFAULT_VEHTYPE" speedFactor="0.99" vaporized=""/>
    <tripinfo id="45" depart="27.00" departLane="-gneE13_0" departPos="5.10" departSpeed="0.00" departDelay="4.50" arrival="195.00" arrivalLane="gneE14_0" arrivalPos="20.71" arrivalSpeed="11.82" duration="168.00" routeLength="450.99" waitingTime="98.00" waitingCount="4" stopTime="0.00" timeLoss="127.27" rerouteNo="0" devices="tripinfo_45 fcd_45" vType="DEFAULT_VEHTYPE" speedFactor="0.85" vaporized=""/>
    <tripinfo id="26" depart="13.00" departLane="-gneE20_0" departPos="5.10" departSpeed="0.00" departDelay="0.00" arrival="196.00" arrivalLane="gneE28_0" arrivalPos="71.89" arrivalSpeed="8.44" duration="183.00" routeLength="482.30" waitingTime="102.00" waitingCount="5" stopTime="0.00" timeLoss="143.82" rerouteNo="0" devices="tripinfo_26 fcd_26" vType="DEFAULT_VEHTYPE" speedFactor="0.93" vaporized=""/>
    <tripinfo id="64" depart="36.00" departLane="gneE25_0" departPos="5.10" departSpeed="0.00" departDelay="4.00" arrival="196.00" arrivalLane="gneE23_0" arrivalPos="44.83" arrivalSpeed="7.09" duration="160.00" routeLength="605.27" waitingTime="69.00" waitingCount="3" stopTime="0.00" timeLoss="112.82" rerouteNo="0" devices="tripinfo_64 fcd_64" vType="DEFAULT_VEHTYPE" speedFactor="0.97" vaporized=""/>
    <tripinfo id="86" depart="43.00" departLane="-gneE28_0" departPos="5.10" departSpeed="0.00" departDelay="0.00" arrival="196.00" arrivalLane="gneE22_0" arrivalPos="41.14" arrivalSpeed="14.38" duration="153.00" routeLength="563.92" waitingTime="79.00" waitingCount="3" stopTime="0.00" timeLoss="111.19" rerouteNo="0" devices="tripinfo_86 fcd_86" vType="DEFAULT_VEHTYPE" speedFactor="1.06" vaporized=""/>
    <tripinfo id="24" depart="13.00" departLane="gneE13_0" departPos="5.10" departSpeed="0.00" departDelay="1.00" arrival="200.00" arrivalLane="-gneE25_0" arrivalPos="70.98" arrivalSpeed="9.14" duration="187.00" routeLength="643.18" waitingTime="102.00" waitingCount="4" stopTime="0.00" timeLoss="134.77" rerouteNo="0" devices="tripinfo_24 fcd_24" vType="DEFAULT_VEHTYPE" speedFactor="0.95" vaporized=""/>
    <tripinfo id="33" depart="17.00" departLane="-gneE18_0" departPos="5.10" departSpeed="0.00" departDelay="0.50" arrival="201.00" arrivalLane="-gneE10_0" arrivalPos="40.02" arrivalSpeed="7.34" duration="184.00" routeLength="362.89" waitingTime="133.00" waitingCount="3" stopTime="0.00" timeLoss="160.78" rerouteNo="0" devices="tripinfo_33 fcd_33" vType="DEFAULT_VEHTYPE" speedFactor="1.18" vaporized=""/>
    <tripinfo id="28" depart="14.00" departLane="-gneE15_0" departPos="5.10" departSpeed="0.00" departDelay="0.00" arrival="210.00" arrivalLane="gneE19_0" arrivalPos="130.57" arrivalSpeed="13.87" duration="196.00" routeLength="575.40" waitingTime="122.00" waitingCount="4" stopTime="0.00" timeLoss="156.82" rerouteNo="0" devices="tripinfo_28 fcd_28" vType="DEFAULT_VEHTYPE" speedFactor="1.15" vaporized=""/>
    <tripinfo id="38" depart="19.00" departLane="gneE27_0" departPos="5.10" departSpeed="0.00" departDelay="0.00" arrival="213.00" arrivalLane="-gneE9_0" arrivalPos="168.72" arrivalSpeed="14.57" duration="194.00" routeLength="482.43" waitingTime="138.00" waitingCount="3" stopTime="0.00" timeLoss="160.38" rerouteNo="0" devices="tripinfo_38 fcd_38" vType="DEFAULT_VEHTYPE" speedFactor="1.09" vaporized=""/>
    <tripinfo id="105" depart="25.00" departLane="-gneE27_0" departPos="5.10" departSpeed="0.00" departDelay="0.00" arrival="214.00" arrivalLane="gneE15_0" arrivalPos="83.62" arrivalSpeed="11.72" duration="189.00" routeLength="454.22" waitingTime="108.00" waitingCount="5" stopTime="0.00" timeLoss="149.44" rerouteNo="4" devices="tripinfo_105 fcd_105" vType="DEFAULT_VEHTYPE" speedFactor="0.90" vaporized=""/>