<?xml version="1.0" encoding="UTF-8"?>

<!-- generated on 2024-08-12 00:54:03 by Eclipse SUMO GUI Version 1.20.0
<configuration xmlns:xsi="http://www.w3.org/2001/XMLSchema-instance" xsi:noNamespaceSchemaLocation="http://sumo.dlr.de/xsd/sumoConfiguration.xsd">

    <input>
        <net-file value="./configurations/simple_grid1.net.xml"/>
        <route-files value="./configurations/str_sumo.rou.xml"/>
    </input>

    <output>
        <netstate-dump value="./configurations/test_dump.xml"/>
        <fcd-output value="./configurations/testTrace.xml"/>
        <tripinfo-output value="./configurations/trips.trips.xml"/>
    </output>

    <time>
        <begin value="0"/>
        <end value="200000"/>
    </time>

    <traci_server>
        <remote-port value="55299"/>
    </traci_server>

    <gui_only>
        <quit-on-end value="true"/>
    </gui_only>

</configuration>
-->

<tripinfos xmlns:xsi="http://www.w3.org/2001/XMLSchema-instance" xsi:noNamespaceSchemaLocation="http://sumo.dlr.de/xsd/tripinfo_file.xsd">
    <tripinfo id="2" depart="1.00" departLane="gneE18_0" departPos="5.10" departSpeed="0.00" departDelay="0.00" arrival="7.00" arrivalLane="gneE18_0" arrivalPos="45.54" arrivalSpeed="12.89" duration="6.00" routeLength="40.44" waitingTime="0.00" waitingCount="0" stopTime="0.00" timeLoss="2.96" rerouteNo="0" devices="tripinfo_2 fcd_2" vType="DEFAULT_VEHTYPE" speedFactor="1.08" vaporized=""/>
    <tripinfo id="13" depart="7.00" departLane="-gneE12_0" departPos="5.10" departSpeed="0.00" departDelay="0.50" arrival="12.00" arrivalLane="-gneE12_0" arrivalPos="27.94" arrivalSpeed="9.45" duration="5.00" routeLength="22.84" waitingTime="0.00" waitingCount="0" stopTime="0.00" timeLoss="2.88" rerouteNo="0" devices="tripinfo_13 fcd_13" vType="DEFAULT_VEHTYPE" speedFactor="0.93" vaporized=""/>
    <tripinfo id="14" depart="7.00" departLane="gneE23_0" departPos="5.10" departSpeed="0.00" departDelay="0.00" arrival="16.00" arrivalLane="gneE14_0" arrivalPos="20.71" arrivalSpeed="12.06" duration="9.00" routeLength="74.77" waitingTime="0.00" waitingCount="0" stopTime="0.00" timeLoss="2.32" rerouteNo="0" devices="tripinfo_14 fcd_14" vType="DEFAULT_VEHTYPE" speedFactor="0.88" vaporized=""/>
    <tripinfo id="34" depart="17.00" departLane="-gneE22_0" departPos="5.10" departSpeed="0.00" departDelay="0.00" arrival="23.00" arrivalLane="-gneE22_0" arrivalPos="41.14" arrivalSpeed="13.66" duration="6.00" routeLength="36.04" waitingTime="0.00" waitingCount="0" stopTime="0.00" timeLoss="2.93" rerouteNo="0" devices="tripinfo_34 fcd_34" vType="DEFAULT_VEHTYPE" speedFactor="1.10" vaporized=""/>
    <tripinfo id="10" depart="8.00" departLane="gneE22_0" departPos="5.10" departSpeed="0.00" departDelay="3.00" arrival="28.00" arrivalLane="gneE18_0" arrivalPos="45.54" arrivalSpeed="13.97" duration="20.00" routeLength="224.13" waitingTime="0.00" waitingCount="0" stopTime="0.00" timeLoss="3.81" rerouteNo="0" devices="tripinfo_10 fcd_10" vType="DEFAULT_VEHTYPE" speedFactor="1.03" vaporized=""/>
    <tripinfo id="1" depart="1.00" departLane="-gneE20_0" departPos="5.10" departSpeed="0.00" departDelay="0.50" arrival="29.00" arrivalLane="-gneE18_0" arrivalPos="45.54" arrivalSpeed="12.43" duration="28.00" routeLength="295.55" waitingTime="0.00" waitingCount="0" stopTime="0.00" timeLoss="6.84" rerouteNo="0" devices="tripinfo_1 fcd_1" vType="DEFAULT_VEHTYPE" speedFactor="1.01" vaporized=""/>
    <tripinfo id="100" depart="0.00" departLane="-gneE10_0" departPos="5.10" departSpeed="0.00" departDelay="0.00" arrival="32.00" arrivalLane="gneE26_0" arrivalPos="97.15" arrivalSpeed="12.89" duration="32.00" routeLength="322.32" waitingTime="0.00" waitingCount="0" stopTime="0.00" timeLoss="5.98" rerouteNo="2" devices="tripinfo_100 fcd_100" vType="DEFAULT_VEHTYPE" speedFactor="0.94" vaporized=""/>
    <tripinfo id="39" depart="20.00" departLane="-gneE19_0" departPos="5.10" departSpeed="0.00" departDelay="0.50" arrival="32.00" arrivalLane="-gneE19_0" arrivalPos="130.57" arrivalSpeed="14.39" duration="12.00" routeLength="125.47" waitingTime="0.00" waitingCount="0" stopTime="0.00" timeLoss="3.17" rerouteNo="0" devices="tripinfo_39 fcd_39" vType="DEFAULT_VEHTYPE" speedFactor="1.04" vaporized=""/>
    <tripinfo id="21" depart="11.00" departLane="-gneE18_0" departPos="5.10" departSpeed="0.00" departDelay="0.50" arrival="35.00" arrivalLane="-gneE22_0" arrivalPos="41.14" arrivalSpeed="11.13" duration="24.00" routeLength="223.93" waitingTime="0.00" waitingCount="0" stopTime="0.00" timeLoss="4.23" rerouteNo="0" devices="tripinfo_21 fcd_21" vType="DEFAULT_VEHTYPE" speedFactor="0.83" vaporized=""/>
    <tripinfo id="15" depart="11.00" departLane="gneE22_0" departPos="5.10" departSpeed="0.00" departDelay="3.50" arrival="46.00" arrivalLane="gneE19_0" arrivalPos="130.57" arrivalSpeed="12.98" duration="35.00" routeLength="361.49" waitingTime="0.00" waitingCount="0" stopTime="0.00" timeLoss="6.33" rerouteNo="0" devices="tripinfo_15 fcd_15" vType="DEFAULT_VEHTYPE" speedFactor="0.94" vaporized=""/>
    <tripinfo id="30" depart="15.00" departLane="gneE9_0" departPos="5.10" departSpeed="0.00" departDelay="0.00" arrival="50.00" arrivalLane="gneE15_0" arrivalPos="83.62" arrivalSpeed="16.04" duration="35.00" routeLength="393.77" waitingTime="0.00" waitingCount="0" stopTime="0.00" timeLoss="10.11" rerouteNo="0" devices="tripinfo_30 fcd_30" vType="DEFAULT_VEHTYPE" speedFactor="1.17" vaporized=""/>
    <tripinfo id="79" depart="40.00" departLane="-gneE18_0" departPos="5.10" departSpeed="0.00" departDelay="0.50" arrival="51.00" arrivalLane="-gneE18_0" arrivalPos="45.54" arrivalSpeed="5.67" duration="11.00" routeLength="40.44" waitingTime="0.00" waitingCount="0" stopTime="0.00" timeLoss="8.05" rerouteNo="0" devices="tripinfo_79 fcd_79" vType="DEFAULT_VEHTYPE" speedFactor="1.04" vaporized=""/>
    <tripinfo id="9" depart="5.00" departLane="gneE22_0" departPos="5.10" departSpeed="0.00" departDelay="0.50" arrival="55.00" arrivalLane="-gneE10_0" arrivalPos="40.02" arrivalSpeed="14.44" duration="50.00" routeLength="262.95" waitingTime="21.00" waitingCount="1" stopTime="0.00" timeLoss="30.57" rerouteNo="0" devices="tripinfo_9 fcd_9" vType="DEFAULT_VEHTYPE" speedFactor="1.09" vaporized=""/>
    <tripinfo id="44" depart="22.00" departLane="-gneE12_0" departPos="5.10" departSpeed="0.00" departDelay="0.00" arrival="58.00" arrivalLane="-gneE11_0" arrivalPos="159.77" arrivalSpeed="7.78" duration="36.00" routeLength="190.72" waitingTime="8.00" waitingCount="1" stopTime="0.00" timeLoss="18.85" rerouteNo="0" devices="tripinfo_44 fcd_44" vType="DEFAULT_VEHTYPE" speedFactor="0.85" vaporized=""/>
    <tripinfo id="4" depart="2.00" departLane="-gneE26_0" departPos="5.10" departSpeed="0.00" departDelay="0.00" arrival="60.00" arrivalLane="-gneE10_0" arrivalPos="40.02" arrivalSpeed="10.84" duration="58.00" routeLength="370.27" waitingTime="10.00" waitingCount="1" stopTime="0.00" timeLoss="23.20" rerouteNo="0" devices="tripinfo_4 fcd_4" vType="DEFAULT_VEHTYPE" speedFactor="0.83" vaporized=""/>
    <tripinfo id="8" depart="6.00" departLane="-gneE18_0" departPos="5.10" departSpeed="0.00" departDelay="2.00" arrival="61.00" arrivalLane="gneE13_0" arrivalPos="162.05" arrivalSpeed="7.67" duration="55.00" routeLength="298.46" waitingTime="13.00" waitingCount="1" stopTime="0.00" timeLoss="28.99" rerouteNo="0" devices="tripinfo_8 fcd_8" vType="DEFAULT_VEHTYPE" speedFactor="0.86" vaporized=""/>
    <tripinfo id="27" depart="15.00" departLane="gneE13_0" departPos="5.10" departSpeed="0.00" departDelay="1.50" arrival="61.00" arrivalLane="gneE14_0" arrivalPos="20.71" arrivalSpeed="9.58" duration="46.00" routeLength="187.00" waitingTime="19.00" waitingCount="1" stopTime="0.00" timeLoss="33.41" rerouteNo="0" devices="tripinfo_27 fcd_27" vType="DEFAULT_VEHTYPE" speedFactor="1.18" vaporized=""/>
    <tripinfo id="81" depart="43.00" departLane="-gneE18_0" departPos="5.10" departSpeed="0.00" departDelay="2.50" arrival="62.00" arrivalLane="gneE27_0" arrivalPos="77.59" arrivalSpeed="12.91" duration="19.00" routeLength="129.04" waitingTime="0.00" waitingCount="0" stopTime="0.00" timeLoss="8.75" rerouteNo="0" devices="tripinfo_81 fcd_81" vType="DEFAULT_VEHTYPE" speedFactor="1.02" vaporized=""/>
    <tripinfo id="31" depart="16.00" departLane="gneE10_0" departPos="5.10" departSpeed="0.00" departDelay="0.50" arrival="66.00" arrivalLane="gneE18_0" arrivalPos="45.54" arrivalSpeed="13.02" duration="50.00" routeLength="363.33" waitingTime="5.00" waitingCount="1" stopTime="0.00" timeLoss="22.54" rerouteNo="0" devices="tripinfo_31 fcd_31" vType="DEFAULT_VEHTYPE" speedFactor="1.02" vaporized=""/>
    <tripinfo id="105" depart="26.00" departLane="-gneE18_0" departPos="5.10" departSpeed="0.00" departDelay="1.00" arrival="67.00" arrivalLane="-gneE11_0" arrivalPos="159.77" arrivalSpeed="12.28" duration="41.00" routeLength="337.92" waitingTime="3.00" waitingCount="1" stopTime="0.00" timeLoss="12.88" rerouteNo="3" devices="tripinfo_105 fcd_105" vType="DEFAULT_VEHTYPE" speedFactor="0.90" vaporized=""/>
    <tripinfo id="18" depart="17.00" departLane="gneE22_0" departPos="5.10" departSpeed="0.00" departDelay="8.00" arrival="68.00" arrivalLane="gneE14_0" arrivalPos="20.71" arrivalSpeed="11.08" duration="51.00" routeLength="282.54" waitingTime="11.00" waitingCount="1" stopTime="0.00" timeLoss="29.30" rerouteNo="0" devices="tripinfo_18 fcd_18" vType="DEFAULT_VEHTYPE" speedFactor="1.02" vaporized=""/>
    <tripinfo id="41" depart="22.00" departLane="gneE11_0" departPos="5.10" departSpeed="0.00" departDelay="1.50" arrival="69.00" arrivalLane="gneE26_0" arrivalPos="97.15" arrivalSpeed="13.30" duration="47.00" routeLength="315.47" waitingTime="11.00" waitingCount="1" stopTime="0.00" timeLoss="22.83" rerouteNo="0" devices="tripinfo_41 fcd_41" vType="DEFAULT_VEHTYPE" speedFactor="1.00" vaporized=""/>
    <tripinfo id="55" depart="30.00" departLane="gneE25_0" departPos="5.10" departSpeed="0.00" departDelay="2.50" arrival="71.00" arrivalLane="-gneE19_0" arrivalPos="130.57" arrivalSpeed="5.72" duration="41.00" routeLength="206.12" waitingTime="9.00" waitingCount="1" stopTime="0.00" timeLoss="26.93" rerouteNo="0" devices="tripinfo_55 fcd_55" vType="DEFAULT_VEHTYPE" speedFactor="1.12" vaporized=""/>
    <tripinfo id="40" depart="20.00" departLane="gneE10_0" departPos="5.10" departSpeed="0.00" departDelay="0.00" arrival="73.00" arrivalLane="-gneE19_0" arrivalPos="130.57" arrivalSpeed="9.51" duration="53.00" routeLength="355.35" waitingTime="9.00" waitingCount="1" stopTime="0.00" timeLoss="27.77" rerouteNo="0" devices="tripinfo_40 fcd_40" vType="DEFAULT_VEHTYPE" speedFactor="1.04" vaporized=""/>
    <tripinfo id="90" depart="45.00" departLane="gneE15_0" departPos="5.10" departSpeed="0.00" departDelay="0.00" arrival="75.00" arrivalLane="gneE18_0" arrivalPos="45.54" arrivalSpeed="14.12" duration="30.00" routeLength="219.26" waitingTime="0.00" waitingCount="0" stopTime="0.00" timeLoss="14.94" rerouteNo="0" devices="tripinfo_90 fcd_90" vType="DEFAULT_VEHTYPE" speedFactor="1.10" vaporized=""/>
    <tripinfo id="37" depart="21.00" departLane="gneE13_0" departPos="5.10" departSpeed="0.00" departDelay="2.50" arrival="80.00" arrivalLane="-gneE27_0" arrivalPos="77.59" arrivalSpeed="12.47" duration="59.00" routeLength="360.11" waitingTime="15.00" waitingCount="1" stopTime="0.00" timeLoss="30.02" rerouteNo="0" devices="tripinfo_37 fcd_37" vType="DEFAULT_VEHTYPE" speedFactor="0.96" vaporized=""/>
    <tripinfo id="17" depart="9.00" departLane="-gneE25_0" departPos="5.10" departSpeed="0.00" departDelay="0.50" arrival="99.00" arrivalLane="gneE12_0" arrivalPos="27.94" arrivalSpeed="7.84" duration="90.00" routeLength="375.87" waitingTime="41.00" waitingCount="2" stopTime="0.00" timeLoss="65.06" rerouteNo="0" devices="tripinfo_17 fcd_17" vType="DEFAULT_VEHTYPE" speedFactor="1.16" vaporized=""/>
    <tripinfo id="12" depart="6.00" departLane="gneE28_0" departPos="5.10" departSpeed="0.00" departDelay="0.00" arrival="100.00" arrivalLane="-gneE25_0" arrivalPos="70.98" arrivalSpeed="3.96" duration="94.00" routeLength="350.08" waitingTime="55.00" waitingCount="1" stopTime="0.00" timeLoss="67.63" rerouteNo="0" devices="tripinfo_12 fcd_12" vType="DEFAULT_VEHTYPE" speedFactor="0.99" vaporized=""/>
    <tripinfo id="23" depart="13.00" departLane="-gneE13_0" departPos="5.10" departSpeed="0.00" departDelay="1.50" arrival="100.00" arrivalLane="-gneE22_0" arrivalPos="41.14" arrivalSpeed="12.68" duration="87.00" routeLength="248.09" waitingTime="52.00" waitingCount="2" stopTime="0.00" timeLoss="66.12" rerouteNo="0" devices="tripinfo_23 fcd_23" vType="DEFAULT_VEHTYPE" speedFactor="0.92" vaporized=""/>
    <tripinfo id="0" depart="0.00" departLane="gneE13_0" departPos="5.10" departSpeed="0.00" departDelay="0.00" arrival="101.00" arrivalLane="-gneE10_0" arrivalPos="40.02" arrivalSpeed="13.84" duration="101.00" routeLength="271.07" waitingTime="68.00" waitingCount="2" stopTime="0.00" timeLoss="81.86" rerouteNo="0" devices="tripinfo_0 fcd_0" vType="DEFAULT_VEHTYPE" speedFactor="1.06" vaporized=""/>
    <tripinfo id="80" depart="43.00" departLane="-gneE12_0" departPos="5.10" departSpeed="0.00" departDelay="3.00" arrival="109.00" arrivalLane="gneE14_0" arrivalPos="20.71" arrivalSpeed="13.72" duration="66.00" routeLength="279.63" waitingTime="25.00" waitingCount="2" stopTime="0.00" timeLoss="44.41" rerouteNo="0" devices="tripinfo_80 fcd_80" vType="DEFAULT_VEHTYPE" speedFactor="1.01" vaporized=""/>
    <tripinfo id="16" depart="8.00" departLane="gneE10_0" departPos="5.10" departSpeed="0.00" departDelay="0.00" arrival="118.00" arrivalLane="gneE9_0" arrivalPos="168.72" arrivalSpeed="7.05" duration="110.00" routeLength="430.79" waitingTime="52.00" waitingCount="2" stopTime="0.00" timeLoss="74.40" rerouteNo="0" devices="tripinfo_16 fcd_16" vType="DEFAULT_VEHTYPE" speedFactor="0.94" vaporized=""/>
    <tripinfo id="19" depart="10.00" departLane="gneE23_0" departPos="5.10" departSpeed="0.00" departDelay="0.50" arrival="118.00" arrivalLane="gneE13_0" arrivalPos="162.05" arrivalSpeed="13.34" duration="108.00" routeLength="500.00" waitingTime="48.00" waitingCount="2" stopTime="0.00" timeLoss="69.42" rerouteNo="0" devices="tripinfo_19 fcd_19" vType="DEFAULT_VEHTYPE" speedFactor="1.01" vaporized=""/>
    <tripinfo id="47" depart="25.00" departLane="-gneE11_0" departPos="5.10" departSpeed="0.00" departDelay="1.50" arrival="118.00" arrivalLane="-gneE27_0" arrivalPos="77.59" arrivalSpeed="12.95" duration="93.00" routeLength="416.69" waitingTime="38.00" waitingCount="2" stopTime="0.00" timeLoss="61.99" rerouteNo="0" devices="tripinfo_47 fcd_47" vType="DEFAULT_VEHTYPE" speedFactor="1.02" vaporized=""/>
    <tripinfo id="67" depart="34.00" departLane="-gneE12_0" departPos="5.10" departSpeed="0.00" departDelay="0.50" arrival="120.00" arrivalLane="gneE10_0" arrivalPos="40.02" arrivalSpeed="12.68" duration="86.00" routeLength="296.98" waitingTime="41.00" waitingCount="2" stopTime="0.00" timeLoss="61.73" rerouteNo="0" devices="tripinfo_67 fcd_67" vType="DEFAULT_VEHTYPE" speedFactor="0.96" vaporized=""/>
    <tripinfo id="96" depart="48.00" departLane="-gneE19_0" departPos="5.10" departSpeed="0.00" departDelay="0.00" arrival="120.00" arrivalLane="gneE27_0" arrivalPos="77.59" arrivalSpeed="13.04" duration="72.00" routeLength="261.87" waitingTime="37.00" waitingCount="1" stopTime="0.00" timeLoss="51.55" rerouteNo="0" devices="tripinfo_96 fcd_96" vType="DEFAULT_VEHTYPE" speedFactor="1.01" vaporized=""/>
    <tripinfo id="75" depart="38.00" departLane="gneE9_0" departPos="5.10" departSpeed="0.00" departDelay="0.50" arrival="130.00" arrivalLane="gneE15_0" arrivalPos="83.62" arrivalSpeed="12.71" duration="92.00" routeLength="393.77" waitingTime="45.00" waitingCount="1" stopTime="0.00" timeLoss="60.68" rerouteNo="0" devices="tripinfo_75 fcd_75" vType="DEFAULT_VEHTYPE" speedFactor="0.97" vaporized=""/>
    <tripinfo id="3" depart="2.00" departLane="gneE25_0" departPos="5.10" departSpeed="0.00" departDelay="0.50" arrival="131.00" arrivalLane="-gneE12_0" arrivalPos="27.94" arrivalSpeed="13.92" duration="129.00" routeLength="383.52" waitingTime="72.00" waitingCount="2" stopTime="0.00" timeLoss="100.88" rerouteNo="0" devices="tripinfo_3 fcd_3" vType="DEFAULT_VEHTYPE" speedFactor="1.03" vaporized=""/>
    <tripinfo id="52" depart="26.00" departLane="-gneE20_0" departPos="5.10" departSpeed="0.00" departDelay="0.00" arrival="132.00" arrivalLane="gneE15_0" arrivalPos="83.62" arrivalSpeed="13.05" duration="106.00" routeLength="281.86" waitingTime="68.00" waitingCount="2" stopTime="0.00" timeLoss="84.82" rerouteNo="0" devices="tripinfo_52 fcd_52" vType="DEFAULT_VEHTYPE" speedFactor="1.02" vaporized=""/>
    <tripinfo id="89" depart="45.00" departLane="-gneE26_0" departPos="5.10" departSpeed="0.00" departDelay="0.50" arrival="133.00" arrivalLane="gneE10_0" arrivalPos="40.02" arrivalSpeed="13.42" duration="88.00" routeLength="317.66" waitingTime="39.00" waitingCount="1" stopTime="0.00" timeLoss="66.17" rerouteNo="0" devices="tripinfo_89 fcd_89" vType="DEFAULT_VEHTYPE" speedFactor="1.12" vaporized=""/>
    <tripinfo id="58" depart="29.00" departLane="-gneE20_0" departPos="5.10" departSpeed="0.00" departDelay="0.00" arrival="135.00" arrivalLane="gneE15_0" arrivalPos="83.62" arrivalSpeed="11.90" duration="106.00" routeLength="281.86" waitingTime="65.00" waitingCount="2" stopTime="0.00" timeLoss="82.01" rerouteNo="0" devices="tripinfo_58 fcd_58" vType="DEFAULT_VEHTYPE" speedFactor="0.94" vaporized=""/>
    <tripinfo id="104" depart="20.00" departLane="-gneE26_0" departPos="5.10" departSpeed="0.00" departDelay="0.00" arrival="149.00" arrivalLane="-gneE13_0" arrivalPos="162.05" arrivalSpeed="8.11" duration="129.00" routeLength="540.77" waitingTime="58.00" waitingCount="3" stopTime="0.00" timeLoss="90.79" rerouteNo="4" devices="tripinfo_104 fcd_104" vType="DEFAULT_VEHTYPE" speedFactor="1.09" vaporized=""/>
    <tripinfo id="71" depart="37.00" departLane="-gneE19_0" departPos="5.10" departSpeed="0.00" departDelay="1.50" arrival="151.00" arrivalLane="gneE26_0" arrivalPos="97.15" arrivalSpeed="14.74" duration="114.00" routeLength="468.34" waitingTime="53.00" waitingCount="2" stopTime="0.00" timeLoss="81.82" rerouteNo="0" devices="tripinfo_71 fcd_71" vType="DEFAULT_VEHTYPE" speedFactor="1.09" vaporized=""/>
    <tripinfo id="46" depart="23.00" departLane="gneE19_0" departPos="5.10" departSpeed="0.00" departDelay="0.00" arrival="152.00" arrivalLane="-gneE28_0" arrivalPos="71.89" arrivalSpeed="15.38" duration="129.00" routeLength="469.90" waitingTime="68.00" waitingCount="3" stopTime="0.00" timeLoss="97.84" rerouteNo="0" devices="tripinfo_46 fcd_46" vType="DEFAULT_VEHTYPE" speedFactor="1.17" vaporized=""/>
    <tripinfo id="49" depart="30.00" departLane="gneE9_0" departPos="5.10" departSpeed="0.00" departDelay="5.50" arrival="152.00" arrivalLane="gneE25_0" arrivalPos="70.98" arrivalSpeed="10.58" duration="122.00" routeLength="386.29" waitingTime="71.00" waitingCount="2" stopTime="0.00" timeLoss="93.08" rerouteNo="0" devices="tripinfo_49 fcd_49" vType="DEFAULT_VEHTYPE" speedFactor="1.00" vaporized=""/>
    <tripinfo id="82" depart="41.00" departLane="gneE23_0" departPos="5.10" departSpeed="0.00" departDelay="0.00" arrival="152.00" arrivalLane="-gneE12_0" arrivalPos="27.94" arrivalSpeed="12.35" duration="111.00" routeLength="248.06" waitingTime="73.00" waitingCount="1" stopTime="0.00" timeLoss="88.42" rerouteNo="0" devices="tripinfo_82 fcd_82" vType="DEFAULT_VEHTYPE" speedFactor="0.89" vaporized=""/>
    <tripinfo id="20" depart="10.00" departLane="gneE15_0" departPos="5.10" departSpeed="0.00" departDelay="0.00" arrival="154.00" arrivalLane="-gneE11_0" arrivalPos="159.77" arrivalSpeed="9.73" duration="144.00" routeLength="449.99" waitingTime="81.00" waitingCount="3" stopTime="0.00" timeLoss="109.41" rerouteNo="0" devices="tripinfo_20 fcd_20" vType="DEFAULT_VEHTYPE" speedFactor="0.97" vaporized=""/>
    <tripinfo id="106" depart="31.00" departLane="gneE13_0" departPos="5.10" departSpeed="0.00" departDelay="1.00" arrival="154.00" arrivalLane="gneE20_0" arrivalPos="108.29" arrivalSpeed="12.65" duration="123.00" routeLength="395.23" waitingTime="65.00" waitingCount="3" stopTime="0.00" timeLoss="89.36" rerouteNo="3" devices="tripinfo_106 fcd_106" vType="DEFAULT_VEHTYPE" speedFactor="0.91" vaporized=""/>
    <tripinfo id="99" depart="60.00" departLane="gneE9_0" departPos="5.10" departSpeed="0.00" departDelay="10.50" arrival="154.00" arrivalLane="gneE25_0" arrivalPos="70.98" arrivalSpeed="12.40" duration="94.00" routeLength="386.29" waitingTime="37.00" waitingCount="2" stopTime="0.00" timeLoss="63.49" rerouteNo="0" devices="tripinfo_99 fcd_99" vType="DEFAULT_VEHTYPE" speedFactor="0.96" vaporized=""/>
    <tripinfo id="93" depart="47.00" departLane="gneE23_0" departPos="5.10" departSpeed="0.00" departDelay="0.50" arrival="158.00" arrivalLane="-gneE19_0" arrivalPos="130.57" arrivalSpeed="11.99" duration="111.00" routeLength="300.75" waitingTime="71.00" waitingCount="2" stopTime="0.00" timeLoss="86.98" rerouteNo="0" devices="tripinfo_93 fcd_93" vType="DEFAULT_VEHTYPE" speedFactor="0.95" vaporized=""/>
    <tripinfo id="91" depart="46.00" departLane="gneE9_0" departPos="5.10" departSpeed="0.00" departDelay="0.50" arrival="159.00" arrivalLane="-gneE12_0" arrivalPos="27.94" arrivalSpeed="12.19" duration="113.00" routeLength="473.84" waitingTime="52.00" waitingCount="2" stopTime="0.00" timeLoss="74.82" rerouteNo="0" devices="tripinfo_91 fcd_91" vType="DEFAULT_VEHTYPE" speedFactor="0.96" vaporized=""/>
    <tripinfo id="68" depart="37.00" departLane="-gneE12_0" departPos="5.10" departSpeed="0.00" departDelay="3.00" arrival="161.00" arrivalLane="gneE20_0" arrivalPos="108.29" arrivalSpeed="12.44" duration="124.00" routeLength="487.86" waitingTime="60.00" waitingCount="3" stopTime="0.00" timeLoss="85.29" rerouteNo="0" devices="tripinfo_68 fcd_68" vType="DEFAULT_VEHTYPE" speedFactor="0.98" vaporized=""/>
    <tripinfo id="73" depart="37.00" departLane="gneE10_0" departPos="5.10" departSpeed="0.00" departDelay="0.50" arrival="161.00" arrivalLane="gneE19_0" arrivalPos="130.57" arrivalSpeed="13.33" duration="124.00" routeLength="500.69" waitingTime="63.00" waitingCount="2" stopTime="0.00" timeLoss="85.33" rerouteNo="0" devices="tripinfo_73 fcd_73" vType="DEFAULT_VEHTYPE" speedFactor="1.00" vaporized=""/>
    <tripinfo id="22" depart="11.00" departLane="-gneE12_0" departPos="5.10" departSpeed="0.00" departDelay="0.00" arrival="169.00" arrivalLane="-gneE18_0" arrivalPos="45.54" arrivalSpeed="11.77" duration="158.00" routeLength="553.41" waitingTime="83.00" waitingCount="3" stopTime="0.00" timeLoss="108.63" rerouteNo="0" devices="tripinfo_22 fcd_22" vType="DEFAULT_VEHTYPE" speedFactor="0.87" vaporized=""/>
    <tripinfo id="98" depart="50.00" departLane="gneE10_0" departPos="5.10" departSpeed="0.00" departDelay="1.00" arrival="170.00" arrivalLane="-gneE11_0" arrivalPos="159.77" arrivalSpeed="14.40" duration="120.00" routeLength="470.54" waitingTime="62.00" waitingCount="2" stopTime="0.00" timeLoss="85.86" rerouteNo="0" devices="tripinfo_98 fcd_98" vType="DEFAULT_VEHTYPE" speedFactor="1.06" vaporized=""/>
    <tripinfo id="65" depart="33.00" departLane="-gneE22_0" departPos="5.10" departSpeed="0.00" departDelay="0.50" arrival="177.00" arrivalLane="-gneE11_0" arrivalPos="159.77" arrivalSpeed="12.49" duration="144.00" routeLength="691.91" waitingTime="53.00" waitingCount="3" stopTime="0.00" timeLoss="86.97" rerouteNo="0" devices="tripinfo_65 fcd_65" vType="DEFAULT_VEHTYPE" speedFactor="0.94" vaporized=""/>
    <tripinfo id="26" depart="13.00" departLane="-gneE20_0" departPos="5.10" departSpeed="0.00" departDelay="0.00" arrival="195.00" arrivalLane="gneE28_0" arrivalPos="71.89" arrivalSpeed="9.92" duration="182.00" routeLength="482.30" waitingTime="99.00" waitingCount="3" stopTime="0.00" timeLoss="141.87" rerouteNo="0" devices="tripinfo_26 fcd_26" vType="DEFAULT_VEHTYPE" speedFactor="0.93" vaporized=""/>
    <tripinfo id="64" depart="36.00" departLane="gneE25_0" departPos="5.10" departSpeed="0.00" departDelay="4.00" arrival="195.00" arrivalLane="gneE23_0" arrivalPos="44.83" arrivalSpeed="8.86" duration="159.00" routeLength="605.27" waitingTime="63.00" waitingCount="4" stopTime="0.00" timeLoss="112.82" rerouteNo="0" devices="tripinfo_64 fcd_64" vType="DEFAULT_VEHTYPE" speedFactor="0.97" vaporized=""/>
    <tripinfo id="45" depart="27.00" departLane="-gneE13_0" departPos="5.10" departSpeed="0.00" departDelay="4.50" arrival="196.00" arrivalLane="gneE14_0" arrivalPos="20.71" arrivalSpeed="7.77" duration="169.00" routeLength="450.99" waitingTime="100.00" waitingCount="4" stopTime="0.00" timeLoss="127.90" rerouteNo="0" devices="tripinfo_45 fcd_45" vType="DEFAULT_VEHTYPE" speedFactor="0.85" vaporized=""/>
    <tripinfo id="53" depart="30.00" departLane="-gneE13_0" departPos="5.10" departSpeed="0.00" departDelay="3.50" arrival="199.00" arrivalLane="-gneE9_0" arrivalPos="168.72" arrivalSpeed="6.84" duration="169.00" routeLength="592.62" waitingTime="83.00" waitingCount="4" stopTime="0.00" timeLoss="121.72" rerouteNo="0" devices="tripinfo_53 fcd_53" vType="DEFAULT_VEHTYPE" speedFactor="0.97" vaporized=""/>
    <tripinfo id="32" depart="16.00" departLane="gneE23_0" departPos="5.10" departSpeed="0.00" departDelay="0.00" arrival="203.00" arrivalLane="gneE22_0" arrivalPos="41.14" arrivalSpeed="12.44" duration="187.00" routeLength="702.51" waitingTime="99.00" waitingCount="4" stopTime="0.00" timeLoss="130.59" rerouteNo="0" devices="tripinfo_32 fcd_32" vType="DEFAULT_VEHTYPE" speedFactor="0.97" vaporized=""/>
    <tripinfo id="38" depart="19.00" departLane="gneE27_0" departPos="5.10" departSpeed="0.00" departDelay="0.00" arrival="208.00" arrivalLane="-gneE9_0" arrivalPos="168.72" arrivalSpeed="14.75" duration="189.00" routeLength="482.43" waitingTime="125.00" waitingCount="4" stopTime="0.00" timeLoss="155.40" rerouteNo="0" devices="tripinfo_38 fcd_38" vType="DEFAULT_VEHTYPE" speedFactor="1.09" vaporized=""/>
    <tripinfo id="86" depart="43.00" departLane="-gneE28_0" departPos="5.10" departSpeed="0.00" departDelay="0.00" arrival="208.00" arrivalLane="gneE22_0" arrivalPos="41.14" arrivalSpeed="14.36" duration="165.00" routeLength="563.92" waitingTime="88.00" waitingCount="3" stopTime="0.00" timeLoss="122.71" rerouteNo="0" devices="tripinfo_86 fcd_86" vType="DEFAULT_VEHTYPE" speedFactor="1.06" vaporized=""/>
    <tripinfo id="24" depart="12.00" departLane="gneE13_0" departPos="5.10" departSpeed="0.00" departDelay="0.00" arrival="209.00" arrivalLane="-gneE25_0" arrivalPos="70.98" arrivalSpeed="5.92" duration="197.00" routeLength="643.18" waitingTime="92.00" waitingCount="5" stopTime="0.00" timeLoss="145.02" rerouteNo="0" devices="tripinfo_24 fcd_24" vType="DEFAULT_VEHTYPE" speedFactor="0.95" vaporized=""/>
    <tripinfo id="28" depart="14.00" departLane="-gneE15_0" departPos="5.10" departSpeed="0.00" departDelay="0.00" arrival="209.00" arrivalLane="gneE19_0" arrivalPos="130.57" arrivalSpeed="15.51" duration="195.00" routeLength="575.40" waitingTime="113.00" waitingCount="5" stopTime="0.00" timeLoss="156.20" rerouteNo="0" devices="tripinfo_28 fcd_28" vType="DEFAULT_VEHTYPE" speedFactor="1.15" vaporized=""/>
    <tripinfo id="103" depart="15.00" departLane="-gneE10_0" departPos="5.10" departSpeed="0.00" departDelay="0.00" arrival="218.00" arrivalLane="gneE19_0" arrivalPos="130.57" arrivalSpeed="13.19" duration="203.00" routeLength="592.49" waitingTime="124.00" waitingCount="4" stopTime="0.00" timeLoss="157.98" rerouteNo="6" devices="tripinfo_103 fcd_103" vType="DEFAULT_VEHTYPE" speedFactor="0.99" vaporized=""/>
    <tripinfo id="50" depart="25.00" departLane="-gneE10_0" departPos="5.10" departSpeed="0.00" departDelay="0.00" arrival="229.00" arrivalLane="gneE19_0" arrivalPos="130.57" arrivalSpeed="12.76" duration="204.00" routeLength="592.49" waitingTime="127.00" waitingCount="3" stopTime="0.00" timeLoss="158.51" rerouteNo="0" devices="tripinfo_50 fcd_50" vType="DEFAULT_VEHTYPE" speedFactor="1.00" vaporized=""/>
    <tripinfo id="92" depart="48.00" departLane="-gneE26_0" departPos="5.10" departSpeed="0.00" departDelay="2.00" arrival="233.00" arrivalLane="-gneE25_0" arrivalPos="70.98" arrivalSpeed="13.28" duration="185.00" routeLength="553.67" waitingTime="115.00" waitingCount="2" stopTime="0.00" timeLoss="141.99" rerouteNo="0" devices="tripinfo_92 fcd_92" vType="DEFAULT_VEHTYPE" speedFactor="0.97" vaporized=""/>
    <tripinfo id="29" depart="15.00" departLane="-gneE14_0" departPos="5.10" departSpeed="0.00" departDelay="0.50" arrival="237.00" arrivalLane="-gneE27_0" arrivalPos="77.59" arrivalSpeed="5.40" duration="222.00" routeLength="658.99" waitingTime="129.00" waitingCount="5" stopTime="0.00" timeLoss="171.04" rerouteNo="0" devices="tripinfo_29 fcd_29" vType="DEFAULT_VEHTYPE" speedFactor="1.01" vaporized=""/>
    <tripinfo id="43" depart="23.00" departLane="gneE9_0" departPos="5.10" departSpeed="0.00" departDelay="1.50" arrival="237.00" arrivalLane="gneE11_0" arrivalPos="159.77" arrivalSpeed="5.28" duration="214.00" routeLength="374.98" waitingTime="166.00" waitingCount="2" stopTime="0.00" timeLoss="182.13" rerouteNo="0" devices="tripinfo_43 fcd_43" vType="DEFAULT_VEHTYPE" speedFactor="0.88" vaporized=""/>
    <tripinfo id="48" depart="26.00" departLane="gneE9_0" departPos="5.10" departSpeed="0.00" departDelay="2.00" arrival="239.00" arrivalLane="gneE11_0" arrivalPos="159.77" arrivalSpeed="8.14" duration="213.00" routeLength="374.98" waitingTime="163.00" waitingCount="2" stopTime="0.00" timeLoss="187.29" rerouteNo="0" devices="tripinfo_48 fcd_48" vType="DEFAULT_VEHTYPE" speedFactor="1.10" vaporized=""/>